 &FCI NORB=  10,NELEC=10,MS2=0,
  ORBSYM=1,1,1,1,1,1,1,1,1,1,
  ISYM=1,
 &END
 0.2664015370957138    1    1    1    1
 2.188499428243617e-15    1    1    2    1
 0.2274003882030315    1    1    2    2
 -1.361074697086135e-14    1    1    3    1
 5.016625322145601e-15    1    1    3    2
 0.2556206634808304    1    1    3    3
 -0.03904023582817708    1    1    4    1
 6.063591986782497e-15    1    1    4    3
 0.2546245326135155    1    1    4    4
 -8.950909565619521e-15    1    1    5    1
 1.739221664139689e-15    1    1    5    2
 1.134758519591311e-15    1    1    5    3
 8.270328351480884e-15    1    1    5    4
 0.236355940035361    1    1    5    5
 0.01662663593633083    1    1    6    2
 -9.586969107579661e-15    1    1    6    3
 2.894056069162748e-15    1    1    6    4
 -1.087576767647606e-15    1    1    6    5
 0.239868853604459    1    1    6    6
 -7.416639767621942e-15    1    1    7    1
 6.604756826465742e-15    1    1    7    2
 0.03033056855545548    1    1    7    3
 3.740710040879724e-15    1    1    7    4
 -1.615389226839368e-15    1    1    7    5
 -5.378567886823411e-15    1    1    7    6
 0.255644240807562    1    1    7    7
 -0.01481954195999363    1    1    8    1
 -1.112635016107576e-15    1    1    8    2
 2.837889385449536e-15    1    1    8    3
 0.03107898417699618    1    1    8    4
 1.193578654338345e-14    1    1    8    5
 3.81046511117313e-15    1    1    8    6
 4.366401707602665e-15    1    1    8    7
 0.2611658087687077    1    1    8    8
 2.074966956860801e-15    1    1    9    1
 5.441211393652743e-15    1    1    9    3
 -6.341266462806188e-15    1    1    9    4
 0.01700223697916736    1    1    9    5
 4.024218895273022e-15    1    1    9    7
 0.229010925781707    1    1    9    9
 -2.689880064603993e-15    1    1   10    1
 0.01400103618393979    1    1   10    3
 -1.222908943961259e-15    1    1   10    5
 -1.627046518914736e-14    1    1   10    6
 0.03984623840051079    1    1   10    7
 -8.688050263795848e-15    1    1   10    8
 3.352915328418817e-15    1    1   10    9
 0.2714057215609838    1    1   10   10
 2.13886594138638e-15    2    1    1    1
 0.06531281404951557    2    1    2    1
 -7.566356283535715e-15    2    1    2    2
 3.817451883388802e-15    2    1    3    1
 2.338824360434767e-14    2    1    3    2
 7.114685932986103e-15    2    1    3    3
 0.06088416635439137    2    1    4    2
 -2.399154858996563e-14    2    1    4    3
 3.876328052928977e-15    2    1    4    4
 2.197417316043049e-14    2    1    5    2
 0.06514811832671794    2    1    5    3
 -2.140158317421819e-14    2    1    5    4
 -8.769633352746984e-15    2    1    5    5
 0.007505151631270484    2    1    6    1
 2.713527227202202e-15    2    1    6    2
 -6.840116907159013e-15    2    1    6    3
 -0.04344218165780141    2    1    6    4
 7.40969826045996e-15    2    1    6    5
 9.185659934355915e-15    2    1    6    6
 2.94662946606395e-15    2    1    7    1
 -6.977173073453489e-15    2    1    7    2
 -8.203692731237286e-15    2    1    7    4
 -0.04132439453447669    2    1    7    5
 2.358058688486658e-14    2    1    7    6
 -1.008702251970689e-14    2    1    7    7
 -0.002410275980031016    2    1    8    2
 3.628342624697539e-15    2    1    8    3
 3.956051846322648e-15    2    1    8    4
 1.284571037677474e-14    2    1    8    5
 0.06374169331671024    2    1    8    6
 2.398467057216756e-14    2    1    8    7
 -8.128397784538666e-15    2    1    8    8
 -0.001595385448654842    2    1    9    3
 -1.138311618554651e-15    2    1    9    4
 -1.059127612688045e-15    2    1    9    5
 -1.520444772783347e-14    2    1    9    6
 0.06397702235145598    2    1    9    7
 -1.928972557397149e-14    2    1    9    8
 4.085525228872476e-15    2    1    9    9
 -1.021078077050071e-15    2    1   10    2
 -1.535608375000242e-15    2    1   10    3
 -0.005810537417318748    2    1   10    5
 -9.475700313124131e-15    2    1   10    6
 4.42141945832416e-15    2    1   10    7
 -6.960273701124126e-15    2    1   10    8
 -0.06281767167915044    2    1   10    9
 6.077777660679173e-15    2    1   10   10
 0.2274003882030314    2    2    1    1
 -7.562512230633689e-15    2    2    2    1
 0.2440161160606275    2    2    2    2
 1.254224884095952e-14    2    2    3    1
 0.2218674659465005    2    2    3    3
 0.01560550722558627    2    2    4    1
 -7.849978401383007e-15    2    2    4    2
 4.234295182026913e-15    2    2    4    3
 0.2365888640809648    2    2    4    4
 7.360089172026432e-15    2    2    5    1
 7.949312105829565e-15    2    2    5    2
 -5.9979872672008e-15    2    2    5    3
 2.018866807221976e-15    2    2    5    4
 0.2294837402133375    2    2    5    5
 1.043964426737945e-15    2    2    6    1
 -0.01473113671545612    2    2    6    2
 9.415593987206851e-15    2    2    6    3
 3.84293733490364e-15    2    2    6    4
 6.620622817590405e-15    2    2    6    5
 0.2331661919394426    2    2    6    6
 -3.757475081533395e-15    2    2    7    1
 -7.401109761612907e-15    2    2    7    2
 -0.01254783238691691    2    2    7    3
 -7.768123720988622e-15    2    2    7    4
 8.432391979775613e-15    2    2    7    5
 2.044483705945812e-15    2    2    7    6
 0.2374970259932674    2    2    7    7
 -0.00551906640803477    2    2    8    1
 3.485911998940344e-15    2    2    8    2
 7.071759180408281e-15    2    2    8    3
 -0.01062140599462569    2    2    8    4
 -4.97097010959662e-15    2    2    8    6
 -2.1392296814672e-15    2    2    8    7
 0.2267985355046243    2    2    8    8
 1.222332666140912e-15    2    2    9    1
 -3.33454569118849e-15    2    2    9    2
 1.917109693718588e-15    2    2    9    3
 1.240882098368423e-15    2    2    9    4
 -0.01400018871230355    2    2    9    5
 1.127673341697757e-14    2    2    9    6
 -9.016738981479737e-15    2    2    9    7
 5.42178893928979e-15    2    2    9    8
 0.2458245447351901    2    2    9    9
 -1.002116747053789e-15    2    2   10    2
 0.004416042747526813    2    2   10    3
 1.096415812029342e-15    2    2   10    4
 -1.298701713839422e-15    2    2   10    5
 -0.01522347455085137    2    2   10    7
 -5.302258043886082e-15    2    2   10    8
 4.218528488340447e-15    2    2   10    9
 0.2305099618900783    2    2   10   10
 -1.361287611343016e-14    3    1    1    1
 3.820668412437454e-15    3    1    2    1
 1.255423019941072e-14    3    1    2    2
 0.06471535329352947    3    1    3    1
 4.654537959442604e-15    3    1    3    2
 -1.038947025611865e-14    3    1    3    3
 4.144917951901947e-15    3    1    4    1
 -1.811858193152288e-14    3    1    4    2
 -0.01167121965057722    3    1    4    3
 -7.448177049963914e-15    3    1    4    4
 0.05144473714414204    3    1    5    2
 -5.58073763894518e-15    3    1    5    3
 2.035141707397457e-15    3    1    5    4
 -5.406533090437283e-15    3    1    5    5
 -3.895086484885121e-15    3    1    6    1
 -4.433462056355284e-15    3    1    6    2
 6.920770950576989e-15    3    1    6    3
 8.799765079395336e-15    3    1    6    4
 0.04505692313478953    3    1    6    5
 0.01551688224718966    3    1    7    1
 -1.271307378088542e-14    3    1    7    3
 -0.04937089798892007    3    1    7    4
 3.134139759034015e-15    3    1    7    5
 -5.181125196453245e-15    3    1    7    6
 -7.095920182584352e-15    3    1    7    7
 1.907073154987535e-15    3    1    8    1
 2.67439058953129e-15    3    1    8    2
 0.0325785745351246    3    1    8    3
 -1.101657197415156e-14    3    1    8    4
 -3.333048009599508e-15    3    1    8    5
 -0.008932467505255798    3    1    8    7
 -1.795731007468843e-14    3    1    8    8
 2.626455384788769e-15    3    1    9    1
 0.001842513899254004    3    1    9    2
 2.882519606418805e-15    3    1    9    3
 -5.424625870775183e-15    3    1    9    4
 -5.442339178580753e-15    3    1    9    5
 0.05407473839915271    3    1    9    6
 1.576213593659681e-14    3    1    9    7
 -5.342709597287215e-15    3    1    9    8
 0.006577088940960802    3    1   10    1
 -1.268223651066442e-14    3    1   10    3
 -0.0153672876970835    3    1   10    4
 -7.455221316658476e-15    3    1   10    5
 -9.567263027273205e-15    3    1   10    6
 -2.809826775401133e-14    3    1   10    7
 -0.06577974635188276    3    1   10    8
 4.11750317229873e-15    3    1   10    9
 5.004349728918873e-15    3    2    1    1
 2.339018761619294e-14    3    2    2    1
 1.007529233618239e-15    3    2    2    2
 4.649324098225566e-15    3    2    3    1
 0.03200749513602911    3    2    3    2
 1.945785688200888e-15    3    2    3    3
 -1.367841334987661e-14    3    2    4    1
 1.326820807302923e-14    3    2    4    2
 -9.041411455483588e-15    3    2    4    4
 0.03364181101334881    3    2    5    1
 -1.259439123458339e-15    3    2    5    2
 2.176833687101559e-14    3    2    5    3
 0.01489052696729661    3    2    5    4
 9.778171843279922e-15    3    2    5    5
 1.363106047264604e-14    3    2    6    2
 0.02428280479895134    3    2    6    3
 -2.167854669051337e-14    3    2    6    4
 2.624599850386025e-15    3    2    6    5
 -8.884075962639409e-15    3    2    6    6
 -0.02220996003270108    3    2    7    2
 1.394227183600157e-14    3    2    7    3
 -4.471928007146689e-15    3    2    7    5
 0.01447662987804602    3    2    7    6
 1.028442045980149e-14    3    2    7    7
 1.477689749876584e-15    3    2    8    1
 4.019558011288136e-15    3    2    8    2
 1.45478149509324e-15    3    2    8    3
 -3.282370738999445e-15    3    2    8    4
 0.02500161261228706    3    2    8    5
 1.186769382133923e-14    3    2    8    6
 -4.172679193869909e-15    3    2    8    7
 3.113502228021985e-15    3    2    8    8
 0.001890478588041658    3    2    9    1
 -6.500940086755529e-15    3    2    9    3
 -0.02206307079535631    3    2    9    4
 3.753128958181999e-15    3    2    9    6
 2.878409317734583e-14    3    2    9    7
 0.03117306615124069    3    2    9    8
 -2.340169394446359e-15    3    2    9    9
 -0.001903974763399912    3    2   10    2
 -2.113001922599802e-15    3    2   10    3
 -3.633827659891508e-15    3    2   10    5
 -0.03324460250998351    3    2   10    6
 -6.231217072392498e-15    3    2   10    7
 -1.357170396284961e-15    3    2   10    8
 -2.022599867541563e-14    3    2   10    9
 2.916819797743335e-15    3    2   10   10
 0.2556206634808304    3    3    1    1
 7.104468204381081e-15    3    3    2    1
 0.2218674659465004    3    3    2    2
 -1.039037952677781e-14    3    3    3    1
 1.947354378690205e-15    3    3    3    2
 0.2564456699644777    3    3    3    3
 -0.03201164653938741    3    3    4    1
 4.081716367782522e-15    3    3    4    2
 6.083997177336538e-15    3    3    4    3
 0.235480944287997    3    3    4    4
 -9.937983116539813e-15    3    3    5    1
 8.466545274859749e-15    3    3    5    2
 7.342357447629673e-15    3    3    5    3
 0.2410361836846003    3    3    5    5
 3.749261629065321e-15    3    3    6    1
 0.02694688308411886    3    3    6    2
 -1.094483937174816e-14    3    3    6    3
 -1.817606500543594e-15    3    3    6    5
 0.2434666066640725    3    3    6    6
 -1.022152701111314e-14    3    3    7    1
 1.340379639219526e-14    3    3    7    2
 0.02633168208304889    3    3    7    3
 2.10147666418332e-15    3    3    7    4
 -5.148943326712226e-15    3    3    7    5
 -1.504778144254446e-15    3    3    7    6
 0.2406293287682953    3    3    7    7
 0.002947037386711657    3    3    8    1
 3.993083184619702e-15    3    3    8    3
 0.02472833002049772    3    3    8    4
 7.278656782374448e-15    3    3    8    5
 8.93133107219539e-15    3    3    8    6
 1.235079044005999e-14    3    3    8    7
 0.2588521126432398    3    3    8    8
 2.587509069896906e-15    3    3    9    1
 -4.500048118546083e-15    3    3    9    2
 6.218760740505291e-15    3    3    9    3
 -4.802604258460034e-15    3    3    9    4
 0.02655591640934023    3    3    9    5
 3.806703241911976e-15    3    3    9    6
 6.641318473092473e-15    3    3    9    7
 -3.758792578812968e-15    3    3    9    8
 0.2263172533431542    3    3    9    9
 -7.10151425277746e-15    3    3   10    1
 -1.002773030966296e-15    3    3   10    2
 -0.001318107094415187    3    3   10    3
 1.085269489912152e-14    3    3   10    4
 -2.927154553696302e-15    3    3   10    5
 -9.117077921717674e-15    3    3   10    6
 0.03307093033248078    3    3   10    7
 -6.92915858272695e-15    3    3   10    8
 -2.052890148267584e-15    3    3   10    9
 0.2625460651498208    3    3   10   10
 -0.03904023582817708    4    1    1    1
 0.01560550722558627    4    1    2    2
 4.143804596950191e-15    4    1    3    1
 -1.36794358175632e-14    4    1    3    2
 -0.0320116465393874    4    1    3    3
 0.05413954667213124    4    1    4    1
 2.420509327943885e-15    4    1    4    2
 -1.117127180299507e-15    4    1    4    3
 -0.02079056502047414    4    1    4    4
 5.747337970160335e-15    4    1    5    1
 -1.296021467795325e-14    4    1    5    2
 2.332739612410154e-15    4    1    5    3
 -1.152760137944198e-14    4    1    5    4
 -0.005345888405751713    4    1    5    5
 1.277061544866842e-15    4    1    6    1
 -0.02818134272496898    4    1    6    2
 1.024142779650472e-14    4    1    6    3
 -6.168691110386025e-15    4    1    6    4
 -7.819421300964425e-15    4    1    6    5
 -0.005503971348141045    4    1    6    6
 2.037981715954672e-15    4    1    7    1
 -6.576779899821631e-15    4    1    7    2
 -0.0421824514076313    4    1    7    3
 5.379124844887525e-15    4    1    7    4
 2.697340006540779e-15    4    1    7    5
 4.201844484710117e-15    4    1    7    6
 -0.0204787716870218    4    1    7    7
 0.01244174245041095    4    1    8    1
 2.993046351211963e-15    4    1    8    2
 -8.473304987832782e-15    4    1    8    3
 -0.04155465517698165    4    1    8    4
 -1.973025922063194e-14    4    1    8    5
 -4.27225708750514e-15    4    1    8    7
 -0.03357153062463128    4    1    8    8
 -2.110667450024281e-15    4    1    9    1
 -2.014306772240732e-15    4    1    9    2
 -4.736770336239841e-15    4    1    9    3
 1.327993066686365e-14    4    1    9    4
 -0.0279709261035097    4    1    9    5
 -8.682518604617605e-15    4    1    9    6
 -2.534274843183843e-15    4    1    9    7
 -5.26113298198295e-15    4    1    9    8
 0.0157568300590517    4    1    9    9
 1.332777595062999e-15    4    1   10    1
 -0.01233299368313561    4    1   10    3
 4.58001510158841e-15    4    1   10    4
 2.70652704053673e-14    4    1   10    6
 -0.05463767549566252    4    1   10    7
 2.585530514724232e-14    4    1   10    8
 -8.907750121817841e-15    4    1   10    9
 -0.04146702326010484    4    1   10   10
 0.06088416635439135    4    2    2    1
 -7.819837617205237e-15    4    2    2    2
 -1.81179706853722e-14    4    2    3    1
 1.326997086914826e-14    4    2    3    2
 4.102202166714733e-15    4    2    3    3
 2.413431420144558e-15    4    2    4    1
 0.07044635531667212    4    2    4    2
 -2.07653402797148e-14    4    2    4    3
 3.63562789286202e-15    4    2    4    4
 -1.117133004177126e-14    4    2    5    1
 3.176468775004156e-15    4    2    5    2
 0.05021784914294044    4    2    5    3
 -2.276355629489126e-14    4    2    5    4
 -7.42717582287079e-15    4    2    5    5
 -0.01093810483107802    4    2    6    1
 1.069812124768947e-15    4    2    6    2
 -1.774812043145911e-14    4    2    6    3
 -0.04881580889174498    4    2    6    4
 -5.516091022791149e-15    4    2    6    5
 7.89272792218038e-15    4    2    6    6
 -4.067638822555892e-15    4    2    7    1
 -5.757819032781624e-15    4    2    7    2
 7.790179721413483e-15    4    2    7    4
 -0.04777078569767412    4    2    7    5
 1.662552426550348e-14    4    2    7    6
 -1.209931173138407e-14    4    2    7    7
 1.690098670653757e-15    4    2    8    1
 -0.01773499209767425    4    2    8    2
 -7.370908352318489e-15    4    2    8    3
 2.113420327341799e-15    4    2    8    4
 7.874191180302317e-15    4    2    8    5
 0.05180014158577181    4    2    8    6
 2.105035441752107e-14    4    2    8    7
 -7.14722021584559e-15    4    2    8    8
 -2.101782346284965e-15    4    2    9    1
 2.028009490292961e-15    4    2    9    2
 -0.01804115416754674    4    2    9    3
 9.257183394836608e-15    4    2    9    4
 -3.615428337948812e-14    4    2    9    6
 0.07123795272733258    4    2    9    7
 -3.000147074209632e-14    4    2    9    8
 6.250915527140341e-15    4    2    9    9
 2.764222638870666e-15    4    2   10    2
 -3.291549015755218e-15    4    2   10    4
 0.009676004246858222    4    2   10    5
 1.52561985600258e-15    4    2   10    6
 1.786726688499135e-15    4    2   10    7
 1.340840728653321e-14    4    2   10    8
 -0.06095038785034884    4    2   10    9
 4.623156707516229e-15    4    2   10   10
 6.071744089425419e-15    4    3    1    1
 -2.399491512778934e-14    4    3    2    1
 4.218403943764889e-15    4    3    2    2
 -0.01167121965057722    4    3    3    1
 6.083535617722511e-15    4    3    3    3
 -1.11892557654906e-15    4    3    4    1
 -2.076986512485244e-14    4    3    4    2
 0.0184693401509817    4    3    4    3
 3.876011356717538e-15    4    3    4    4
 1.485248935983007e-15    4    3    5    1
 0.005697315796816019    4    3    5    2
 -2.005896980281053e-14    4    3    5    3
 -5.438762532760353e-15    4    3    5    5
 3.786367115563537e-15    4    3    6    1
 -9.407408235357005e-15    4    3    6    2
 1.405589574276309e-14    4    3    6    4
 -0.01070557381565384    4    3    6    5
 -1.610731306426555e-15    4    3    6    6
 -0.02422314978752144    4    3    7    1
 1.613632770094451e-15    4    3    7    3
 0.005404509575938968    4    3    7    4
 1.288395640067814e-14    4    3    7    5
 1.848604126739418e-15    4    3    7    6
 1.361761657243719e-14    4    3    7    7
 -5.002744686333773e-15    4    3    8    1
 -1.608124854474672e-15    4    3    8    2
 0.0008600628008160755    4    3    8    3
 2.15311708368782e-15    4    3    8    4
 2.248577404510126e-15    4    3    8    5
 -2.808093157473121e-14    4    3    8    6
 0.01466871057638119    4    3    8    7
 -6.012875469151696e-15    4    3    8    8
 -2.432740617114144e-15    4    3    9    1
 -0.01544755970375473    4    3    9    2
 -5.377290812942511e-15    4    3    9    5
 0.003363600871747842    4    3    9    6
 -2.011377740190399e-14    4    3    9    7
 2.975047683339357e-15    4    3    9    8
 2.299432354618994e-15    4    3    9    9
 -0.008557831909053026    4    3   10    1
 1.347390685898456e-14    4    3   10    3
 0.0226544920744854    4    3   10    4
 1.040483535417546e-14    4    3   10    5
 1.446728307914575e-15    4    3   10    7
 0.01146424987699683    4    3   10    8
 2.16174237030254e-14    4    3   10    9
 0.2546245326135155    4    4    1    1
 3.892360411939189e-15    4    4    2    1
 0.2365888640809649    4    4    2    2
 -7.461255512871892e-15    4    4    3    1
 -9.043104158855621e-15    4    4    3    2
 0.2354809442879969    4    4    3    3
 -0.02079056502047413    4    4    4    1
 3.628946337998531e-15    4    4    4    2
 3.876801441664012e-15    4    4    4    3
 0.2640228131812942    4    4    4    4
 -1.559512707114749e-14    4    4    5    1
 -6.426778141103277e-15    4    4    5    2
 2.546271605877074e-15    4    4    5    3
 4.21963346408521e-15    4    4    5    4
 0.2237444976734627    4    4    5    5
 -2.837022036557537e-15    4    4    6    1
 -0.0109489623197267    4    4    6    2
 -5.336221247801614e-15    4    4    6    3
 -2.073915660818717e-15    4    4    6    4
 3.309615292611763e-15    4    4    6    5
 0.2299646822609963    4    4    6    6
 -1.087147999294034e-15    4    4    7    1
 8.468052946487907e-15    4    4    7    2
 0.01548383726664946    4    4    7    3
 3.284454297638605e-15    4    4    7    4
 -1.647690765159398e-14    4    4    7    6
 0.2629038170947494    4    4    7    7
 -0.02995424533141416    4    4    8    1
 2.519664837105119e-15    4    4    8    3
 0.01707124225334909    4    4    8    4
 4.262797118597268e-15    4    4    8    5
 5.834635208517508e-15    4    4    8    6
 -8.927383636290275e-15    4    4    8    7
 0.2442271347028898    4    4    8    8
 6.052980039255571e-15    4    4    9    1
 5.957507081767825e-15    4    4    9    2
 2.106937716787601e-15    4    4    9    3
 1.122363072683932e-14    4    4    9    4
 -0.009087238015229839    4    4    9    5
 -2.857428487525643e-15    4    4    9    6
 7.226316741992158e-15    4    4    9    7
 -7.097093646087906e-15    4    4    9    8
 0.2386175688544655    4    4    9    9
 2.162383315390899e-15    4    4   10    1
 -2.542536838048245e-15    4    4   10    2
 0.02770113732294229    4    4   10    3
 -1.301739372940811e-14    4    4   10    4
 0.02146337146131128    4    4   10    7
 -6.178006850286649e-15    4    4   10    8
 -2.091807569136334e-15    4    4   10    9
 0.2609174975852526    4    4   10   10
 -8.941010324843083e-15    5    1    1    1
 7.369815703218664e-15    5    1    2    2
 0.03364181101334879    5    1    3    2
 -9.922267216487987e-15    5    1    3    3
 5.744813774344201e-15    5    1    4    1
 -1.117384093228915e-14    5    1    4    2
 1.491095813981937e-15    5    1    4    3
 -1.55835814614733e-14    5    1    4    4
 0.03571723636662262    5    1    5    1
 -5.141046841526449e-15    5    1    5    2
 0.01406423089236127    5    1    5    4
 7.366886190806979e-15    5    1    5    5
 2.573337155246458e-15    5    1    6    2
 0.02787538874313259    5    1    6    3
 -5.757373947292308e-15    5    1    6    4
 -1.117126631516907e-14    5    1    6    6
 -0.02110814770196194    5    1    7    2
 2.769799960197775e-15    5    1    7    4
 1.265832850581593e-14    5    1    7    5
 0.01430879293767536    5    1    7    6
 3.129992335805063e-15    5    1    7    7
 5.484533494430036e-15    5    1    8    1
 7.122174997497686e-15    5    1    8    2
 -1.324271467987568e-15    5    1    8    3
 -1.924518462061907e-14    5    1    8    4
 0.02819789679538359    5    1    8    5
 -9.95946967663418e-15    5    1    8    6
 -4.020181219492269e-15    5    1    8    7
 -9.428497406593094e-15    5    1    8    8
 0.004335016627329274    5    1    9    1
 -3.052961565452511e-15    5    1    9    3
 -0.02142833473765376    5    1    9    4
 -1.11303133764679e-14    5    1    9    5
 4.557717029925625e-15    5    1    9    7
 0.03289302415505077    5    1    9    8
 3.571661802044998e-15    5    1    9    9
 -0.003925647759903582    5    1   10    2
 -5.998743444389065e-15    5    1   10    3
 -4.084605001430811e-15    5    1   10    5
 -0.03507708971156178    5    1   10    6
 -2.691548885159824e-14    5    1   10    7
 3.265661111668945e-15    5    1   10    8
 2.588801925993764e-15    5    1   10    9
 -1.214724296956584e-14    5    1   10   10
 1.729987339959013e-15    5    2    1    1
 2.198166156025382e-14    5    2    2    1
 7.96576285483879e-15    5    2    2    2
 0.05144473714414203    5    2    3    1
 -1.253844305063936e-15    5    2    3    2
 8.475671688619661e-15    5    2    3    3
 -1.296146504005956e-14    5    2    4    1
 3.175371980352516e-15    5    2    4    2
 0.005697315796816013    5    2    4    3
 -6.444275588127974e-15    5    2    4    4
 -5.139423925333509e-15    5    2    5    1
 0.05463610935216325    5    2    5    2
 1.57299993349392e-14    5    2    5    3
 -1.259142925139056e-15    5    2    5    4
 -4.543382110380943e-15    5    2    5    5
 2.197839321771299e-15    5    2    6    1
 3.90642505184395e-15    5    2    6    2
 2.804529655659234e-15    5    2    6    3
 -6.394608341229644e-15    5    2    6    4
 0.03359493246689206    5    2    6    5
 2.94095739198206e-15    5    2    6    6
 -0.007205806582947803    5    2    7    1
 5.20366051712426e-15    5    2    7    2
 2.119385778713441e-15    5    2    7    3
 -0.04250691480278564    5    2    7    4
 -1.239393105517202e-14    5    2    7    5
 -6.495793847952354e-15    5    2    7    6
 4.337831442217893e-15    5    2    7    7
 2.95045726958521e-15    5    2    8    1
 -1.793672980057626e-15    5    2    8    2
 0.03208319691832145    5    2    8    3
 3.408858821051558e-15    5    2    8    4
 -5.938220401929994e-15    5    2    8    5
 1.424414152018912e-14    5    2    8    6
 0.004589457752977069    5    2    8    7
 -1.088299921542051e-14    5    2    8    8
 -0.01225885306973633    5    2    9    2
 5.901531366791749e-15    5    2    9    5
 0.0550229698665961    5    2    9    6
 3.805878597437154e-14    5    2    9    7
 -8.913513417548414e-15    5    2    9    8
 -4.834520807375409e-15    5    2    9    9
 -0.00147519707595926    5    2   10    1
 -4.66616077208149e-15    5    2   10    3
 0.005731759226657739    5    2   10    4
 -3.00858924591578e-15    5    2   10    6
 -9.586094382842762e-15    5    2   10    7
 -0.05302175631542056    5    2   10    8
 -1.624465428139246e-14    5    2   10    9
 1.015730744706932e-14    5    2   10   10
 1.140253610869436e-15    5    3    1    1
 0.06514811832671794    5    3    2    1
 -6.006443478772818e-15    5    3    2    2
 -5.570606953911868e-15    5    3    3    1
 2.176472513096363e-14    5    3    3    2
 7.313846467529557e-15    5    3    3    3
 2.330958337831412e-15    5    3    4    1
 0.05021784914294047    5    3    4    2
 -2.006037307966678e-14    5    3    4    3
 2.526048326887199e-15    5    3    4    4
 1.57399079106358e-14    5    3    5    2
 0.076118769444615    5    3    5    3
 -2.281451514295318e-14    5    3    5    4
 -1.013148505472828e-14    5    3    5    5
 0.02318133733018119    5    3    6    1
 2.302173200486623e-15    5    3    6    2
 -5.809033405524667e-15    5    3    6    3
 -0.03564597317193629    5    3    6    4
 9.678198354282649e-15    5    3    6    6
 1.124944119308049e-15    5    3    7    1
 -2.644904113612439e-15    5    3    7    2
 -2.80361684354404e-15    5    3    7    3
 1.431905880228074e-15    5    3    7    4
 -0.03545223354504409    5    3    7    5
 2.559783149846139e-14    5    3    7    6
 -9.409825041353188e-15    5    3    7    7
 0.01277463049057657    5    3    8    2
 2.756803555265254e-15    5    3    8    4
 7.804978200052669e-15    5    3    8    5
 0.0736636654382985    5    3    8    6
 3.098475678238352e-14    5    3    8    7
 -1.120171731649308e-14    5    3    8    8
 -1.756781574587641e-15    5    3    9    1
 0.01276489810663545    5    3    9    3
 -5.055460740754692e-15    5    3    9    4
 -3.416606681463454e-15    5    3    9    5
 -1.953013568677435e-14    5    3    9    6
 0.05532036678795392    5    3    9    7
 -1.87993939549152e-14    5    3    9    8
 2.74181746587997e-15    5    3    9    9
 -4.232769308008266e-15    5    3   10    1
 -2.533507468299001e-15    5    3   10    2
 -3.080894417551751e-15    5    3   10    3
 9.901798000223371e-15    5    3   10    4
 -0.02071185144132249    5    3   10    5
 -9.004379433024688e-15    5    3   10    6
 3.283659554612763e-15    5    3   10    7
 4.603042748514942e-15    5    3   10    8
 -0.06397094905241463    5    3   10    9
 4.522753440095441e-15    5    3   10   10
 8.269263735757294e-15    5    4    1    1
 -2.14006709549811e-14    5    4    2    1
 2.012182353820715e-15    5    4    2    2
 2.03615720381812e-15    5    4    3    1
 0.0148905269672966    5    4    3    2
 -1.152922536262473e-14    5    4    4    1
 -2.277018021627964e-14    5    4    4    2
 4.206944858706736e-15    5    4    4    4
 0.01406423089236127    5    4    5    1
 -1.256314716163709e-15    5    4    5    2
 -2.280969023557683e-14    5    4    5    3
 0.01407673434602379    5    4    5    4
 3.31552132391644e-15    5    4    5    5
 -5.837062283073893e-15    5    4    6    1
 1.987137143306164e-15    5    4    6    2
 0.0004672945177613698    5    4    6    3
 1.271184232514146e-14    5    4    6    4
 1.926584223868244e-15    5    4    6    5
 -9.026436867747881e-15    5    4    6    6
 1.525991828915826e-15    5    4    7    1
 -0.02061908213437716    5    4    7    2
 7.813583909730805e-15    5    4    7    3
 1.684152469526244e-14    5    4    7    5
 0.01146609475146954    5    4    7    6
 1.891074898833873e-14    5    4    7    7
 -1.153517295709333e-14    5    4    8    1
 3.872886427758699e-15    5    4    8    2
 1.39612843779687e-15    5    4    8    3
 4.319552994821162e-15    5    4    8    4
 0.002440014661945618    5    4    8    5
 -2.814308612449549e-14    5    4    8    6
 -2.416494918750872e-15    5    4    8    7
 3.299328503106463e-15    5    4    8    8
 -0.009937145082496261    5    4    9    1
 -5.137040187635867e-15    5    4    9    3
 -0.01885488346317922    5    4    9    4
 -8.122787853531865e-15    5    4    9    5
 2.232741650098213e-15    5    4    9    6
 -1.813789378311856e-14    5    4    9    7
 0.01409519500627785    5    4    9    8
 0.008371888765008554    5    4   10    2
 9.215901518969155e-15    5    4   10    3
 2.639994793635497e-15    5    4   10    5
 -0.01484333356272298    5    4   10    6
 2.578632424427758e-15    5    4   10    7
 -1.03873737469537e-15    5    4   10    8
 2.264738347911826e-14    5    4   10    9
 8.007938302555604e-15    5    4   10   10
 0.2363559400353609    5    5    1    1
 -8.747705044947982e-15    5    5    2    1
 0.2294837402133375    5    5    2    2
 -5.409201650022958e-15    5    5    3    1
 9.782139781869225e-15    5    5    3    2
 0.2410361836846003    5    5    3    3
 -0.005345888405751689    5    5    4    1
 -7.420215420816145e-15    5    5    4    2
 -5.430351945894597e-15    5    5    4    3
 0.2237444976734627    5    5    4    4
 7.360407268363818e-15    5    5    5    1
 -4.565473845769105e-15    5    5    5    2
 -1.009161469873489e-14    5    5    5    3
 3.311503563137759e-15    5    5    5    4
 0.2408397467859225    5    5    5    5
 0.01575248160840315    5    5    6    2
 6.521022365284904e-15    5    5    6    4